init.lammps (written by ASE) 

121 	 atoms 
3  atom types
0.0       14.34366105636912  xlo xhi
0.0      12.421974858089193  ylo yhi
0.0      11.711550210511561  zlo zhi
7.1718305281845574      7.1718305281845591      4.1406582860297316  xy xz yz

Masses

1 24.305
2 26.9815385
3 28.085

Atoms 

     1   3                       0                       0                       0
     2   3      1.4343661056369119     0.82813165720594661      2.3423100421023118
     3   3      2.8687322112738238      1.6562633144118932      4.6846200842046235
     4   3      4.3030983169107353        2.48439497161784      7.0269301263069357
     5   3      5.7374644225476477      3.3125266288237865       9.369240168409247
     6   3      1.4343661056369117      2.4843949716178386 -4.1348466149230564e-16
     7   1      2.8687322112738234      3.3125266288237856      2.3423100421023113
     8   1      4.3030983169107353      4.1406582860297316      4.6846200842046235
     9   1      5.7374644225476477      4.9687899432356781      7.0269301263069348
    10   1      7.1718305281845591      5.7969216004416255       9.369240168409247
    11   1      2.8687322112738234      4.9687899432356772 -8.2696932298461129e-16
    12   1      4.3030983169107353      5.7969216004416246      2.3423100421023109
    13   2      5.7374644225476468      6.6250532576475711      4.6846200842046226
    14   2      7.1718305281845591      7.4531849148535176      7.0269301263069348
    15   2      8.6061966338214706      8.2813165720594633       9.369240168409247
    16   2      4.3030983169107353      7.4531849148535168 -1.4624985894019482e-15
    17   2      5.7374644225476468      8.2813165720594633      2.3423100421023104
    18   2      7.1718305281845591      9.1094482292654106      4.6846200842046226
    19   2      8.6061966338214706      9.9375798864713563      7.0269301263069339
    20   2      10.040562739458382      10.765711543677302      9.3692401684092452
    21   2      5.7374644225476468      9.9375798864713545 -1.6539386459692226e-15
    22   2      7.1718305281845582      10.765711543677302      2.3423100421023109
    23   2      8.6061966338214706      11.593843200883249      4.6846200842046217
    24   2      10.040562739458382      12.421974858089195       7.026930126306933
    25   2      11.474928845095294      13.250106515295142      9.3692401684092452
    26   2      2.8687322112738234  7.3862799663087486e-17 -4.1348466149230564e-16
    27   2      4.3030983169107353     0.82813165720594661      2.3423100421023113
    28   2      5.7374644225476477      1.6562633144118932      4.6846200842046235
    29   2      7.1718305281845591        2.48439497161784      7.0269301263069348
    30   2      8.6061966338214724       3.312526628823786       9.369240168409247
    31   2      4.3030983169107353      2.4843949716178391 -8.5757387134236826e-16
    32   2      5.7374644225476468      3.3125266288237856      2.3423100421023109
    33   2      7.1718305281845591      4.1406582860297316      4.6846200842046226
    34   2      8.6061966338214706      4.9687899432356781      7.0269301263069348
    35   2      10.040562739458384      5.7969216004416255       9.369240168409247
    36   2      5.7374644225476468      4.9687899432356781 -1.2710585328346739e-15
    37   2      7.1718305281845591      5.7969216004416246      2.3423100421023104
    38   2      8.6061966338214706      6.6250532576475711      4.6846200842046217
    39   2      10.040562739458382      7.4531849148535185      7.0269301263069348
    40   2      11.474928845095295      8.2813165720594633       9.369240168409247
    41   2      7.1718305281845582      7.4531849148535168 -1.4624985894019482e-15
    42   2      8.6061966338214706      8.2813165720594633        2.34231004210231
    43   2      10.040562739458382      9.1094482292654106      4.6846200842046226
    44   2      11.474928845095294      9.9375798864713563      7.0269301263069339
    45   2      12.909294950732207      10.765711543677302      9.3692401684092452
    46   2      8.6061966338214706      9.9375798864713563 -2.5421170656693478e-15
    47   2      10.040562739458382      10.765711543677304      2.3423100421023095
    48   2      11.474928845095295      11.593843200883249      4.6846200842046208
    49   2      12.909294950732207      12.421974858089195      7.0269301263069321
    50   2       14.34366105636912      13.250106515295142      9.3692401684092452
    51   2      5.7374644225476468  1.4772559932617497e-16 -8.2696932298461129e-16
    52   2      7.1718305281845591     0.82813165720594673      2.3423100421023109
    53   2      8.6061966338214706      1.6562633144118932      4.6846200842046226
    54   2      10.040562739458384      2.4843949716178395      7.0269301263069348
    55   2      11.474928845095295      3.3125266288237865       9.369240168409247
    56   2      7.1718305281845591      2.4843949716178391 -1.5237076861174622e-15
    57   2      8.6061966338214706      3.3125266288237856      2.3423100421023104
    58   2      10.040562739458382      4.1406582860297325      4.6846200842046226
    59   2      11.474928845095295      4.9687899432356781      7.0269301263069348
    60   2      12.909294950732207      5.7969216004416255      9.3692401684092452
    61   2      8.6061966338214706      4.9687899432356781 -1.7151477426847365e-15
    62   2      10.040562739458382      5.7969216004416246        2.34231004210231
    63   2      11.474928845095294      6.6250532576475711      4.6846200842046217
    64   2      12.909294950732207      7.4531849148535176      7.0269301263069348
    65   2      14.343661056369118      8.2813165720594633      9.3692401684092452
    66   2      10.040562739458382      7.4531849148535176 -2.7947662189521361e-15
    67   2      11.474928845095295      8.2813165720594633      2.3423100421023091
    68   2      12.909294950732207      9.1094482292654106      4.6846200842046217
    69   2       14.34366105636912      9.9375798864713563       7.026930126306933
    70   2       15.77802716200603      10.765711543677304      9.3692401684092435
    71   2      11.474928845095294      9.9375798864713563 -2.5421170656693478e-15
    72   2      12.909294950732207      10.765711543677304      2.3423100421023095
    73   2      14.343661056369118      11.593843200883249      4.6846200842046208
    74   2      15.778027162006032      12.421974858089195      7.0269301263069321
    75   2      17.212393267642941      13.250106515295142      9.3692401684092435
    76   2      8.6061966338214706  3.3261070145177811e-16 -1.4624985894019482e-15
    77   2      10.040562739458382     0.82813165720594695      2.3423100421023104
    78   2      11.474928845095295      1.6562633144118932      4.6846200842046226
    79   2      12.909294950732207        2.48439497161784      7.0269301263069339
    80   2      14.343661056369118      3.3125266288237869      9.3692401684092452
    81   2      10.040562739458382      2.4843949716178391 -1.7457522910424935e-15
    82   2      11.474928845095294      3.3125266288237856        2.34231004210231
    83   2      12.909294950732207      4.1406582860297316      4.6846200842046226
    84   2      14.343661056369118       4.968789943235679      7.0269301263069339
    85   2       15.77802716200603      5.7969216004416264      9.3692401684092452
    86   2      11.474928845095295      4.9687899432356781 -2.6033261623848617e-15
    87   2      12.909294950732207      5.7969216004416255      2.3423100421023091
    88   2       14.34366105636912      6.6250532576475711      4.6846200842046217
    89   2       15.77802716200603      7.4531849148535194       7.026930126306933
    90   2      17.212393267642941       8.281316572059465      9.3692401684092435
    91   2      12.909294950732207      7.4531849148535168 -2.7947662189521361e-15
    92   2      14.343661056369118      8.2813165720594633      2.3423100421023086
    93   2      15.778027162006032      9.1094482292654106      4.6846200842046217
    94   2      17.212393267642941      9.9375798864713563      7.0269301263069321
    95   2      18.646759373279853      10.765711543677302      9.3692401684092435
    96   2      14.343661056369116      9.9375798864713545  -3.430295485369473e-15
    97   2      15.778027162006028      10.765711543677302      2.3423100421023091
    98   2      17.212393267642941      11.593843200883247      4.6846200842046208
    99   2      18.646759373279853      12.421974858089195      7.0269301263069321
   100   2      20.081125478916764      13.250106515295142      9.3692401684092435
   101   2      11.474928845095294  2.9545119865234995e-16 -1.6539386459692226e-15
   102   2      12.909294950732207      0.8281316572059465      2.3423100421023109
   103   2      14.343661056369118      1.6562633144118935      4.6846200842046217
   104   2       15.77802716200603      2.4843949716178404       7.026930126306933
   105   2      17.212393267642941      3.3125266288237865      9.3692401684092452
   106   2      12.909294950732207        2.48439497161784 -2.6339307107426187e-15
   107   2       14.34366105636912       3.312526628823786      2.3423100421023095
   108   2       15.77802716200603      4.1406582860297334      4.6846200842046208
   109   2      17.212393267642941      4.9687899432356799      7.0269301263069321
   110   2      18.646759373279853      5.7969216004416264      9.3692401684092452
   111   2      14.343661056369118      4.9687899432356781 -3.0474153722349244e-15
   112   2      15.778027162006032      5.7969216004416246      2.3423100421023095
   113   2      17.212393267642941      6.6250532576475711      4.6846200842046208
   114   2      18.646759373279853      7.4531849148535185      7.0269301263069321
   115   2      20.081125478916764       8.281316572059465      9.3692401684092452
   116   2      15.778027162006028      7.4531849148535168 -3.2388554288021987e-15
   117   2      17.212393267642941      8.2813165720594633      2.3423100421023091
   118   2      18.646759373279853      9.1094482292654106      4.6846200842046208
   119   2      20.081125478916764      9.9375798864713563      7.0269301263069321
   120   2      21.515491584553676      10.765711543677302      9.3692401684092435
   121   2      17.212393267642941      9.9375798864713563  -3.430295485369473e-15
