125
Lattice="14.34366105636912 0.0 0.0 7.17183052818456 12.421974858089193 0.0 7.17183052818456 4.1406582860297325 11.71155021051156" Properties=species:S:1:pos:R:3 ipi_comment="Step:           0  Bead:       0 positions{angstrom}  cell{angstrom}" pbc="T T T"
Si       0.00000000       0.00000000       0.00000000
Si       1.43436611       0.82813166       2.34231004
Si       2.86873221       1.65626331       4.68462008
Si       4.30309832       2.48439497       7.02693013
Si       5.73746442       3.31252663       9.36924017
Si       1.43436611       2.48439497       0.00000000
Mg       2.86873221       3.31252663       2.34231004
Mg       4.30309832       4.14065829       4.68462008
Mg       5.73746442       4.96878994       7.02693013
Mg       7.17183053       5.79692160       9.36924017
Mg       2.86873221       4.96878994       0.00000000
Mg       4.30309832       5.79692160       2.34231004
Al       5.73746442       6.62505326       4.68462008
Al       7.17183053       7.45318491       7.02693013
Al       8.60619663       8.28131657       9.36924017
Al       4.30309832       7.45318491       0.00000000
Al       5.73746442       8.28131657       2.34231004
Al       7.17183053       9.10944823       4.68462008
Al       8.60619663       9.93757989       7.02693013
Al      10.04056274      10.76571154       9.36924017
Al       5.73746442       9.93757989       0.00000000
Al       7.17183053      10.76571154       2.34231004
Al       8.60619663      11.59384320       4.68462008
Al      10.04056274      12.42197486       7.02693013
Al      11.47492885      13.25010652       9.36924017
Al       2.86873221       0.00000000       0.00000000
Al       4.30309832       0.82813166       2.34231004
Al       5.73746442       1.65626331       4.68462008
Al       7.17183053       2.48439497       7.02693013
Al       8.60619663       3.31252663       9.36924017
Al       4.30309832       2.48439497       0.00000000
Al       5.73746442       3.31252663       2.34231004
Al       7.17183053       4.14065829       4.68462008
Al       8.60619663       4.96878994       7.02693013
Al      10.04056274       5.79692160       9.36924017
Al       5.73746442       4.96878994       0.00000000
Al       7.17183053       5.79692160       2.34231004
Al       8.60619663       6.62505326       4.68462008
Al      10.04056274       7.45318491       7.02693013
Al      11.47492885       8.28131657       9.36924017
Al       7.17183053       7.45318491       0.00000000
Al       8.60619663       8.28131657       2.34231004
Al      10.04056274       9.10944823       4.68462008
Al      11.47492885       9.93757989       7.02693013
Al      12.90929495      10.76571154       9.36924017
Al       8.60619663       9.93757989       0.00000000
Al      10.04056274      10.76571154       2.34231004
Al      11.47492885      11.59384320       4.68462008
Al      12.90929495      12.42197486       7.02693013
Al      14.34366106      13.25010652       9.36924017
Al       5.73746442       0.00000000       0.00000000
Al       7.17183053       0.82813166       2.34231004
Al       8.60619663       1.65626331       4.68462008
Al      10.04056274       2.48439497       7.02693013
Al      11.47492885       3.31252663       9.36924017
Al       7.17183053       2.48439497       0.00000000
Al       8.60619663       3.31252663       2.34231004
Al      10.04056274       4.14065829       4.68462008
Al      11.47492885       4.96878994       7.02693013
Al      12.90929495       5.79692160       9.36924017
Al       8.60619663       4.96878994       0.00000000
Al      10.04056274       5.79692160       2.34231004
Al      11.47492885       6.62505326       4.68462008
Al      12.90929495       7.45318491       7.02693013
Al      14.34366106       8.28131657       9.36924017
Al      10.04056274       7.45318491       0.00000000
Al      11.47492885       8.28131657       2.34231004
Al      12.90929495       9.10944823       4.68462008
Al      14.34366106       9.93757989       7.02693013
Al      15.77802716      10.76571154       9.36924017
Al      11.47492885       9.93757989       0.00000000
Al      12.90929495      10.76571154       2.34231004
Al      14.34366106      11.59384320       4.68462008
Al      15.77802716      12.42197486       7.02693013
Al      17.21239327      13.25010652       9.36924017
Al       8.60619663       0.00000000       0.00000000
Al      10.04056274       0.82813166       2.34231004
Al      11.47492885       1.65626331       4.68462008
Al      12.90929495       2.48439497       7.02693013
Al      14.34366106       3.31252663       9.36924017
Al      10.04056274       2.48439497       0.00000000
Al      11.47492885       3.31252663       2.34231004
Al      12.90929495       4.14065829       4.68462008
Al      14.34366106       4.96878994       7.02693013
Al      15.77802716       5.79692160       9.36924017
Al      11.47492885       4.96878994       0.00000000
Al      12.90929495       5.79692160       2.34231004
Al      14.34366106       6.62505326       4.68462008
Al      15.77802716       7.45318491       7.02693013
Al      17.21239327       8.28131657       9.36924017
Al      12.90929495       7.45318491       0.00000000
Al      14.34366106       8.28131657       2.34231004
Al      15.77802716       9.10944823       4.68462008
Al      17.21239327       9.93757989       7.02693013
Al      18.64675937      10.76571154       9.36924017
Al      14.34366106       9.93757989       0.00000000
Al      15.77802716      10.76571154       2.34231004
Al      17.21239327      11.59384320       4.68462008
Al      18.64675937      12.42197486       7.02693013
Al      20.08112548      13.25010652       9.36924017
Al      11.47492885       0.00000000       0.00000000
Al      12.90929495       0.82813166       2.34231004
Al      14.34366106       1.65626331       4.68462008
Al      15.77802716       2.48439497       7.02693013
Al      17.21239327       3.31252663       9.36924017
Al      12.90929495       2.48439497       0.00000000
Al      14.34366106       3.31252663       2.34231004
Al      15.77802716       4.14065829       4.68462008
Al      17.21239327       4.96878994       7.02693013
Al      18.64675937       5.79692160       9.36924017
Al      14.34366106       4.96878994       0.00000000
Al      15.77802716       5.79692160       2.34231004
Al      17.21239327       6.62505326       4.68462008
Al      18.64675937       7.45318491       7.02693013
Al      20.08112548       8.28131657       9.36924017
Al      15.77802716       7.45318491       0.00000000
Al      17.21239327       8.28131657       2.34231004
Al      18.64675937       9.10944823       4.68462008
Al      20.08112548       9.93757989       7.02693013
Al      21.51549158      10.76571154       9.36924017
Al      17.21239327       9.93757989       0.00000000
V      18.64675937      10.76571154       2.34231004
V      20.08112548      11.59384320       4.68462008
V       21.51549158      12.42197486       7.02693013
V       22.94985769      13.25010652       9.36924017
