48
# CELL(abcABC):    7.62302     7.62302    11.43453    90.00000    90.00000    90.00000  Step:           0  Bead:       0 x_centroid{angstrom}  cell{angstrom}
      Sc  3.89131e+00  3.74017e+00  3.83539e+00
      Sc  1.98996e+00  3.79731e+00  5.75709e+00
      Sc  7.61931e+00  7.55786e+00  3.89824e+00
      Sc  3.02300e-02  1.82610e+00  9.58227e+00
      Sc  1.90444e+00  4.08500e-02  9.54902e+00
      Sc  3.72185e+00  7.60528e+00  7.56535e+00
      Sc  1.94716e+00  1.90103e+00  7.62431e+00
      Sc  2.00155e+00  7.56381e+00  1.89086e+00
      Sc  5.64445e+00  5.79784e+00  3.92397e+00
      Sc  5.67941e+00  1.96397e+00  1.45570e-01
      Sc  7.48849e+00  3.90191e+00  3.95181e+00
      Sc  5.72852e+00  1.95907e+00  7.57806e+00
      Fe  1.90923e+00  3.92393e+00  9.66998e+00
      Fe  4.01400e-02  7.52121e+00  7.58641e+00
      Fe  1.88679e+00  4.25100e-02  5.72963e+00
      Fe  7.61319e+00  1.74434e+00  1.79456e+00
      Fe  3.68335e+00  1.91549e+00  1.80393e+00
      Fe  3.75451e+00  5.76021e+00  1.75065e+00
      Fe  5.64186e+00  7.59629e+00  1.77539e+00
      Fe  5.69727e+00  7.53561e+00  5.68504e+00
      Fe  3.74788e+00  1.17200e-02  3.74145e+00
      Fe  2.04606e+00  5.68802e+00  3.77712e+00
      Fe  5.75087e+00  4.99000e-02  9.65170e+00
      Zn  3.82793e+00  3.83405e+00  1.14181e+01
      Zn  7.60311e+00  2.05633e+00  5.84672e+00
      Zn  1.90900e-02  5.72234e+00  1.87433e+00
      Zn  5.71829e+00  3.79073e+00  9.35664e+00
      Zn  4.29000e-03  5.67309e+00  5.65981e+00
      Zn  7.53329e+00  3.66111e+00  3.62300e-02
      Zn  3.72872e+00  1.91668e+00  9.52551e+00
      Mo  5.71656e+00  3.91626e+00  1.86107e+00
      Pd  1.06140e-01  5.63183e+00  9.49468e+00
      Pd  3.85351e+00  5.61141e+00  5.69179e+00
      Pd  5.73659e+00  1.92547e+00  3.93870e+00
      Pd  7.60491e+00  3.79460e+00  7.53407e+00
      Pd  5.79829e+00  3.79075e+00  5.78303e+00
      Pd  5.66176e+00  5.78042e+00  7.56381e+00
      Pd  8.42300e-02  7.50016e+00  1.13175e+01
      Pd  2.06449e+00  5.70406e+00  1.13177e+01
      Pd  3.86135e+00  5.74369e+00  9.57191e+00
      Pd  1.89876e+00  3.73681e+00  1.96294e+00
      Ir  5.73870e+00  5.62469e+00  1.13984e+01
      Ir  3.90317e+00  1.90369e+00  5.71972e+00
      Ir  3.78086e+00  7.58389e+00  5.69700e-02
      Ir  3.86725e+00  3.92059e+00  7.74102e+00
      Ir  1.89783e+00  5.65755e+00  7.59003e+00
      Ir  2.11665e+00  1.99292e+00  1.14083e+01
      Ir  1.86115e+00  1.92470e+00  3.83082e+00
48
# CELL(abcABC):    7.62302     7.62302    11.43453    90.00000    90.00000    90.00000  Step:           5  Bead:       0 x_centroid{angstrom}  cell{angstrom}
      Sc  3.88795e+00  3.74529e+00  3.82190e+00
      Sc  1.98217e+00  3.80774e+00  5.76122e+00
      Sc  7.61817e+00  7.56157e+00  3.90066e+00
      Sc  2.90208e-02  1.83285e+00  9.57387e+00
      Sc  1.90878e+00  5.21316e-02  9.53954e+00
      Sc  3.72775e+00  7.59916e+00  7.56279e+00
      Sc  1.95141e+00  1.89168e+00  7.62732e+00
      Sc  1.99606e+00  7.57595e+00  1.91058e+00
      Sc  5.64003e+00  5.81337e+00  3.90416e+00
      Sc  5.68436e+00  1.95888e+00  1.60808e-01
      Sc  7.49829e+00  3.89324e+00  3.91841e+00
      Sc  5.71901e+00  1.93923e+00  7.58945e+00
      Fe  1.90439e+00  3.92655e+00  9.65217e+00
      Fe  3.57337e-02  7.50824e+00  7.59133e+00
      Fe  1.88241e+00  2.93696e-02  5.71464e+00
      Fe  7.60664e+00  1.74621e+00  1.79772e+00
      Fe  3.69530e+00  1.91746e+00  1.81654e+00
      Fe  3.76471e+00  5.75559e+00  1.76875e+00
      Fe  5.64149e+00  7.59046e+00  1.77631e+00
      Fe  5.69055e+00  7.54573e+00  5.68655e+00
      Fe  3.75417e+00  9.77629e-03  3.75168e+00
      Fe  2.05495e+00  5.69954e+00  3.77610e+00
      Fe  5.75329e+00  2.92369e-02  9.64639e+00
      Zn  3.82284e+00  3.83185e+00  1.14177e+01
      Zn  7.60674e+00  2.04603e+00  5.84288e+00
      Zn  1.53418e-02  5.71723e+00  1.86351e+00
      Zn  5.71929e+00  3.79263e+00  9.36429e+00
      Zn  2.20551e-03  5.67808e+00  5.67190e+00
      Zn  7.54249e+00  3.67346e+00  3.33983e-02
      Zn  3.74046e+00  1.91801e+00  9.52971e+00
      Mo  5.71984e+00  3.91814e+00  1.86940e+00
      Pd  1.08561e-01  5.63082e+00  9.49436e+00
      Pd  3.85660e+00  5.61554e+00  5.70146e+00
      Pd  5.73519e+00  1.91096e+00  3.93125e+00
      Pd  7.60284e+00  3.80661e+00  7.54368e+00
      Pd  5.78540e+00  3.80230e+00  5.79264e+00
      Pd  5.66396e+00  5.77672e+00  7.56859e+00
      Pd  7.65380e-02  7.49680e+00  1.13150e+01
      Pd  2.05378e+00  5.69695e+00  1.13206e+01
      Pd  3.86703e+00  5.74367e+00  9.56468e+00
      Pd  1.88823e+00  3.73410e+00  1.95653e+00
      Ir  5.73863e+00  5.63067e+00  1.13962e+01
      Ir  3.90469e+00  1.89724e+00  5.71430e+00
      Ir  3.78727e+00  7.57850e+00  5.15579e-02
      Ir  3.87021e+00  3.92521e+00  7.73860e+00
      Ir  1.89794e+00  5.66203e+00  7.59452e+00
      Ir  2.10895e+00  1.99632e+00  1.14132e+01
      Ir  1.86619e+00  1.92404e+00  3.82718e+00
48
# CELL(abcABC):    7.62302     7.62302    11.43453    90.00000    90.00000    90.00000  Step:          10  Bead:       0 x_centroid{angstrom}  cell{angstrom}
      Sc  3.87582e+00  3.75455e+00  3.78952e+00
      Sc  1.95639e+00  3.82272e+00  5.75920e+00
      Sc  7.61287e+00  7.57058e+00  3.90274e+00
      Sc  1.80792e-02  1.84624e+00  9.56274e+00
      Sc  1.91936e+00  7.44645e-02  9.50550e+00
      Sc  3.73965e+00  7.59566e+00  7.55475e+00
      Sc  1.93911e+00  1.87873e+00  7.64169e+00
      Sc  1.98755e+00  7.57651e+00  1.96013e+00
      Sc  5.63325e+00  5.84423e+00  3.85391e+00
      Sc  5.69153e+00  1.94021e+00  1.86285e-01
      Sc  7.52587e+00  3.88413e+00  3.85773e+00
      Sc  5.71941e+00  1.89443e+00  7.61672e+00
      Fe  1.90334e+00  3.93754e+00  9.61351e+00
      Fe  2.82682e-02  7.49310e+00  7.58996e+00
      Fe  1.88589e+00  6.53319e-03  5.68888e+00
      Fe  7.59476e+00  1.74589e+00  1.80809e+00
      Fe  3.72139e+00  1.91757e+00  1.84782e+00
      Fe  3.78615e+00  5.74773e+00  1.79626e+00
      Fe  5.63797e+00  7.58520e+00  1.79124e+00
      Fe  5.67673e+00  7.56211e+00  5.69556e+00
      Fe  3.76232e+00  4.11930e-03  3.77128e+00
      Fe  2.07657e+00  5.70895e+00  3.77683e+00
      Fe  5.76209e+00 -7.85513e-03  9.63282e+00
      Zn  3.81981e+00  3.83605e+00  1.14148e+01
      Zn  7.61653e+00  2.02169e+00  5.82386e+00
      Zn  2.27486e-02  5.71168e+00  1.84381e+00
      Zn  5.72835e+00  3.79626e+00  9.37715e+00
      Zn -3.76621e-03  5.68765e+00  5.69826e+00
      Zn  7.56432e+00  3.69358e+00  2.20132e-02
      Zn  3.76309e+00  1.92346e+00  9.52834e+00
      Mo  5.72119e+00  3.91372e+00  1.89201e+00
      Pd  1.05659e-01  5.63000e+00  9.48680e+00
      Pd  3.86127e+00  5.63650e+00  5.71930e+00
      Pd  5.73019e+00  1.88584e+00  3.91795e+00
      Pd  7.59683e+00  3.83950e+00  7.57242e+00
      Pd  5.75486e+00  3.82218e+00  5.80893e+00
      Pd  5.67605e+00  5.75783e+00  7.58203e+00
      Pd  5.46642e-02  7.48611e+00  1.13182e+01
      Pd  2.03156e+00  5.68140e+00  1.13248e+01
      Pd  3.88053e+00  5.73711e+00  9.54975e+00
      Pd  1.87905e+00  3.73303e+00  1.94261e+00
      Ir  5.73998e+00  5.65227e+00  1.13899e+01
      Ir  3.90619e+00  1.88357e+00  5.70313e+00
      Ir  3.80199e+00  7.56958e+00  4.45662e-02
      Ir  3.87256e+00  3.93317e+00  7.73082e+00
      Ir  1.89391e+00  5.66774e+00  7.60649e+00
      Ir  2.09376e+00  2.00153e+00  1.14268e+01
      Ir  1.87177e+00  1.92063e+00  3.81776e+00
48
# CELL(abcABC):    7.62302     7.62302    11.43453    90.00000    90.00000    90.00000  Step:          15  Bead:       0 x_centroid{angstrom}  cell{angstrom}
      Sc  3.85622e+00  3.77338e+00  3.74671e+00
      Sc  1.92614e+00  3.84402e+00  5.74824e+00
      Sc  7.60680e+00  7.57843e+00  3.90135e+00
      Sc -4.75226e-03  1.86280e+00  9.55407e+00
      Sc  1.93006e+00  9.85584e-02  9.46235e+00
      Sc  3.75621e+00  7.59758e+00  7.54794e+00
      Sc  1.92160e+00  1.86906e+00  7.66130e+00
      Sc  1.97899e+00  7.57067e+00  2.01541e+00
      Sc  5.62736e+00  5.87949e+00  3.78899e+00
      Sc  5.70580e+00  1.92344e+00  2.16419e-01
      Sc  7.56214e+00  3.87487e+00  3.79028e+00
      Sc  5.72957e+00  1.83161e+00  7.65465e+00
      Fe  1.90297e+00  3.94557e+00  9.56368e+00
      Fe  1.88906e-02  7.47459e+00  7.59000e+00
      Fe  1.89683e+00 -2.35086e-02  5.65482e+00
      Fe  7.58167e+00  1.74286e+00  1.83137e+00
      Fe  3.74459e+00  1.91708e+00  1.88583e+00
      Fe  3.81391e+00  5.74212e+00  1.82180e+00
      Fe  5.62373e+00  7.58530e+00  1.81474e+00
      Fe  5.65723e+00  7.58531e+00  5.70418e+00
      Fe  3.77571e+00 -5.40319e-03  3.79700e+00
      Fe  2.10385e+00  5.72415e+00  3.77569e+00
      Fe  5.77423e+00 -5.55101e-02  9.60911e+00
      Zn  3.81786e+00  3.84134e+00  1.14104e+01
      Zn  7.62536e+00  1.99574e+00  5.79538e+00
      Zn  3.18110e-02  5.70435e+00  1.81519e+00
      Zn  5.74290e+00  3.80839e+00  9.39805e+00
      Zn -9.06493e-03  5.70314e+00  5.73293e+00
      Zn  7.59386e+00  3.71788e+00  6.25248e-03
      Zn  3.79690e+00  1.93243e+00  9.52495e+00
      Mo  5.72223e+00  3.90152e+00  1.91651e+00
      Pd  9.55727e-02  5.63212e+00  9.47738e+00
      Pd  3.86495e+00  5.66273e+00  5.74596e+00
      Pd  5.71991e+00  1.85164e+00  3.89800e+00
      Pd  7.58616e+00  3.88676e+00  7.61503e+00
      Pd  5.71542e+00  3.84556e+00  5.83347e+00
      Pd  5.69900e+00  5.72943e+00  7.60375e+00
      Pd  2.46152e-02  7.46300e+00  1.13269e+01
      Pd  2.00339e+00  5.65978e+00  1.13275e+01
      Pd  3.89601e+00  5.72654e+00  9.53164e+00
      Pd  1.87082e+00  3.73376e+00  1.92047e+00
      Ir  5.74397e+00  5.68538e+00  1.13789e+01
      Ir  3.90808e+00  1.86370e+00  5.68940e+00
      Ir  3.82445e+00  7.55822e+00  3.46782e-02
      Ir  3.87682e+00  3.94377e+00  7.71806e+00
      Ir  1.88639e+00  5.67332e+00  7.62254e+00
      Ir  2.07091e+00  2.00797e+00  1.14476e+01
      Ir  1.87980e+00  1.91594e+00  3.80646e+00
