<simulation verbosity='high'>
   <prng>
      <seed>12345</seed>
      <state shape='(624)'>
       [ 722595101, 1703716166, 2817206682, 3240026568, 439858050, 
         3500911807, 3735011644, 2707004966, 4008381440, 3967953617, 
         1858496786, 21174269, 160626663, 601513395, 3372334588, 
         2750660703, 2987632122, 829378690, 4284191762, 3979942367, 
         3177642152, 708466982, 892649082, 1043154535, 497607118, 
         1196875171, 1537374722, 2168034811, 248639950, 1354997196, 
         2289810848, 4291100008, 1243715358, 459380082, 699380737, 
         320350762, 246209590, 3573211295, 3040331206, 55183456, 
         2415940117, 3356593294, 3292357613, 2324175114, 3751028421, 
         227377086, 3417889281, 2405366913, 3229397600, 3006820477, 
         3194137747, 2044335987, 1955364003, 2728015821, 2226419871, 
         533793179, 1875022309, 2941645958, 2535581079, 2516010986, 
         225121017, 1402713898, 3794672538, 2014854846, 659785431, 
         2389313044, 4121626862, 3272752423, 130546251, 1837627200, 
         2795483058, 601614647, 3948683560, 3317800528, 3139672071, 
         2640510162, 904388319, 4009980000, 1639669685, 2563927241, 
         4246904298, 879478581, 2418823213, 2982325752, 1141904773, 
         3170854899, 401958699, 3652593179, 3152668567, 1622473924, 
         3292678059, 1875307571, 3576553930, 994056503, 281919607, 
         1504058856, 3332438833, 3094920621, 1302359826, 3319656280, 
         2540103292, 2401426529, 170212679, 4272926756, 4044845491, 
         2520324522, 3240795908, 1593743450, 2814513334, 724042319, 
         4235754677, 799078367, 3669232102, 707078682, 2330044317, 
         3854489389, 574352748, 858846190, 842808197, 2942579950, 
         4138348553, 829695636, 123353498, 304006376, 464814847, 
         2474094926, 2749034129, 2642156008, 1809789663, 1376257195, 
         1789176112, 3538066387, 1487028711, 3197822553, 3933542233, 
         718635350, 2536852282, 942729976, 4220052690, 321220387, 
         2358407607, 3822915899, 554574942, 4216551948, 1739489092, 
         384035375, 4099863596, 697985972, 2038835904, 2524748181, 
         349117489, 2922167261, 386839611, 452580566, 423097845, 
         3461322366, 2849879174, 3575542671, 1596210746, 1214944003, 
         2521857053, 1572791800, 2135377588, 3607209730, 1420653058, 
         954525797, 2034470117, 2385415205, 107947558, 338308629, 
         3359837872, 2568065739, 1980150320, 1001997914, 436683001, 
         2151457436, 1385899438, 649136444, 1552328947, 461903655, 
         4242017333, 2210201034, 3163831213, 137465775, 30819035, 
         3552152849, 2182190356, 1187680244, 39618567, 2095435614, 
         2710303707, 1968768626, 678829144, 263105752, 1002421612, 
         2849155675, 2541026446, 2122937623, 2804543144, 781082878, 
         3244896805, 2459704784, 545212322, 3710674675, 3385774268, 
         3329490265, 3109708514, 1044060176, 2631744842, 2710633347, 
         2528641598, 385667852, 22889394, 87075730, 3880721430, 
         4031971316, 2685482154, 3090325793, 1721756679, 991992996, 
         3724187927, 2046958680, 1602383814, 944236554, 318318755, 
         519875939, 1707130603, 1283894201, 2803486917, 4102500005, 
         1477054105, 352975219, 3400406267, 1839471884, 2699280567, 
         4118965993, 1118649170, 1872577670, 1583513896, 1069566870, 
         4020126415, 4081702003, 685293223, 333594500, 1441095213, 
         1722833888, 689398579, 65285415, 3523632089, 2849202489, 
         448613560, 131678660, 353404533, 4239495774, 1212134918, 
         4076720499, 2082970086, 2381137879, 3798537510, 1121682079, 
         1469359285, 3004116079, 3777880952, 109794174, 1798402567, 
         1390215485, 4206598768, 4283876355, 1320901045, 3008253965, 
         3559719204, 1653494710, 1105765816, 4081668855, 949665205, 
         2844304996, 397470894, 4141717267, 1747395131, 1116492838, 
         853292504, 1637261088, 2297104996, 51967909, 1936059077, 
         4142455183, 3466868143, 3609812824, 3145323158, 3516471396, 
         3612152529, 965936172, 233864994, 3419231254, 2809216708, 
         3052482556, 2295678141, 1900952399, 44200834, 2032905934, 
         3589453144, 1959767009, 2296944424, 3876841105, 2440707352, 
         807725659, 1941507881, 1183274328, 1707715600, 3726918431, 
         2011040164, 3404988443, 4148635368, 1350354104, 3468285414, 
         107429091, 1497976214, 329319272, 809556064, 2497549960, 
         3425980505, 46291930, 472807697, 3768813554, 538274258, 
         2177674315, 1728075105, 779721005, 959451797, 4051645039, 
         65016096, 600720226, 1830005877, 3425391932, 671017353, 
         1773986059, 634126025, 813248648, 3002958998, 2713738978, 
         2712326832, 2094335683, 3262047488, 2879110949, 3409234678, 
         1349903337, 2122349068, 1326146043, 3557257745, 3197352411, 
         3343115970, 2242618294, 3012299049, 1600725136, 1380472675, 
         3244278919, 1824360194, 1228659620, 250440419, 1218498409, 
         3582187232, 1705255338, 1078083496, 1760870686, 4043993685, 
         4194637230, 334961138, 1292287646, 3113107120, 3717176544, 
         2482953777, 2579258907, 2872989241, 2412206943, 673799196, 
         569626862, 2184330171, 1345901931, 2428840763, 3121933256, 
         16450824, 3780280373, 3451800260, 4006505241, 1317062337, 
         813707432, 1879435809, 364011758, 1746170626, 229175099, 
         2652536151, 3419899115, 1935855904, 3487946131, 4250685034, 
         689994580, 247174939, 1133208491, 3833916148, 4221301761, 
         3280135101, 3549095743, 981439189, 938666050, 3515771487, 
         4256376323, 571856468, 1834993880, 12406645, 3952867511, 
         2816581166, 1064303257, 2903738599, 3622874431, 1468180835, 
         2481736827, 389082775, 2949525713, 4174185430, 3913309846, 
         3908337875, 1069509444, 4284626255, 939540201, 2364724736, 
         2411036026, 4043289216, 731835563, 2306684098, 2033911299, 
         242195718, 2095252152, 2680138675, 774051334, 3396090701, 
         1853665585, 1304883798, 96976597, 3320110362, 565082301, 
         3416458226, 1704704257, 4200774049, 2745919534, 3576508147, 
         1199151926, 3212472693, 2316079942, 466322958, 4219240525, 
         3141480604, 3987824114, 2550140667, 3194942618, 4287025011, 
         985024035, 2920352922, 1439832221, 302918327, 590895813, 
         2356983629, 506022805, 4066740373, 2659999183, 1599691019, 
         1987821553, 3375120064, 3112328458, 3849816111, 943070413, 
         3805430586, 2626920294, 3315310108, 465162198, 835827387, 
         286913409, 2095481795, 1742600658, 1278441933, 3089676659, 
         3213942143, 3375557371, 1670463110, 425143436, 3074380882, 
         3090170819, 1465665043, 3019089505, 3013594319, 2484799616, 
         1092041299, 3664659428, 3752455554, 3998238185, 1037450607, 
         1351267441, 2394348347, 1040631723, 247161383, 703826423, 
         2066009301, 1405034722, 2824262864, 268067999, 1595035450, 
         2692176627, 2810747965, 2774725454, 2224832924, 3486746879, 
         500906057, 2739038267, 2975544176, 2885879662, 534434858, 
         262114624, 3210806366, 677072499, 522362210, 2453274680, 
         4242546634, 659452476, 2229675654, 2247584392, 3084334775, 
         1182578985, 1238386908, 2394330381, 1712471130, 1637582742, 
         1181673726, 2153827607, 2525232026, 1104206496, 3291331668, 
         658294287, 1200547694, 1988255682, 3875702768, 3174256293, 
         1119394970, 1327352980, 1809949471, 137444512, 1967241025, 
         4151361035, 3136748526, 73180289, 1453205886, 66075127, 
         1720185283, 3595824556, 2002815387, 3727168487, 2673963038, 
         667946786, 1461920731, 2000752735, 1602078585, 4068200148, 
         3622972508, 2444176545, 3438874204, 2827478351, 874760848, 
         191963779, 1167611830, 4154733828, 1338501345, 2774165151, 
         4097295659, 1570764802, 1856515321, 1416132293, 2773141104, 
         2121712501, 1929702804, 3046429281, 822833871, 3661632443, 
         229411419, 970889958, 1206565633, 149669816, 1560722791, 
         3604819006, 2535506681, 3443416573, 806291435, 2178527269, 
         780863648, 4235364881, 2788487536, 2041521337, 585532287, 
         2573699649, 3794965088, 1178409671, 1966015556, 3901609062, 
         2790755195, 115173126, 3642576275, 1807787239, 1250571949, 
         3522983026, 1489544032, 1038367310, 3583331997, 3091264098, 
         1383362292, 1310445245, 3933604528, 1160347395, 2611856672, 
         2167322852, 2855531059, 2669260581, 2757963945, 1719969868, 
         4245309376, 1414088792, 89376436, 3258700106 ]
      </state>
      <set_pos>272</set_pos>
   </prng>
   <output prefix='alchemical'>
      <properties shape='(10)' stride='5'>
       [ step, time{picosecond}, conserved{electronvolt}, temperature{kelvin}, kinetic_md{electronvolt}, 
         potential{electronvolt}, pressure_md{bar}, volume{angstrom3}, ensemble_temperature{kelvin}, cell_abcABC ]
      </properties>
      <trajectory filename='xc' stride='5' cell_units='angstrom'>x_centroid{angstrom}</trajectory>
      <checkpoint stride='1000'>1</checkpoint>
   </output>
   <total_steps>4000</total_steps>
   <ffsocket mode='unix' name='driver'>
      <address>alchem</address>
      <port>12345</port>
      <timeout>  6.00000000e+01</timeout>
   </ffsocket>
   <system>
      <forces>
         <force forcefield='driver'>
         </force>
      </forces>
      <ensemble>
         <temperature>  7.91703800e-04</temperature>
         <eens>  1.56639040e-03</eens>
         <hamiltonian_weights shape='(1)'> [   1.00000000e+00 ] </hamiltonian_weights>
      </ensemble>
      <motion mode='dynamics'>
         <dynamics mode='nvt'>
            <thermostat mode='gle'>
               <A shape='(5, 5)'>
                [   4.49809886e-03,   6.59481072e-06,   2.78803034e-04,  -8.80826517e-04,   5.60537149e-03, 
                   -6.72680227e-06,   2.07906956e-09,   1.74616955e-05,  -4.80016447e-06,   1.02583087e-05, 
                   -3.58619145e-04,  -1.74616955e-05,   3.28748198e-05,   1.24569872e-04,  -2.41765716e-04, 
                   -2.50891254e-04,   4.80016447e-06,  -1.24569872e-04,   6.44920777e-04,   2.78358323e-04, 
                    5.27349344e-03,  -1.02583087e-05,   2.41765716e-04,  -2.78358323e-04,   7.48847746e-03 ]
               </A>
               <s shape='(5, 144)'>
                [   5.26108589e-03,  -1.10220640e-02,  -7.66157050e-03,  -4.82312544e-04,   1.91423424e-02, 
                    1.78815583e-02,  -2.13048506e-02,   2.02049474e-02,  -8.56140200e-03,  -4.72083727e-02, 
                    1.20142064e-02,  -4.39993101e-02,  -1.03400815e-02,   2.94290831e-02,   3.43261385e-02, 
                   -6.96956739e-03,  -1.17116199e-02,  -3.28493749e-03,  -5.19072163e-02,   5.82077118e-02, 
                   -2.18617137e-02,   4.05223087e-02,  -3.11077803e-03,   3.45352721e-02,   5.40455516e-02, 
                    2.10025592e-02,   6.25957620e-02,  -1.91164467e-02,   2.04661438e-02,  -2.44436778e-02, 
                   -3.41544040e-02,  -1.32422515e-02,  -2.58649165e-02,  -2.36022608e-02,   1.22440656e-02, 
                   -1.56950805e-02,  -1.59666091e-02,  -1.04851017e-02,  -2.60707461e-02,   4.93838911e-02, 
                    3.40407037e-02,   3.57349800e-02,  -2.74163030e-02,  -1.78589613e-02,  -1.11339237e-02, 
                   -8.14392494e-03,  -2.06610867e-02,  -2.04981048e-02,   2.36008084e-02,   7.50963613e-03, 
                    2.02924121e-02,   2.56325295e-02,  -2.87253732e-02,  -3.97696144e-02,   3.64829551e-02, 
                    7.09832597e-03,   3.17241969e-02,  -1.59921739e-02,   8.70459496e-03,  -1.62460287e-02, 
                   -3.28821275e-02,  -2.32137780e-02,  -7.44063622e-02,  -4.30459697e-03,  -2.11569754e-02, 
                   -3.73125723e-03,   4.10043792e-02,   1.71499759e-02,  -1.38935813e-02,   3.48896011e-02, 
                   -3.81884529e-03,   4.02374174e-02,  -2.38280835e-02,   1.69746890e-02,   3.55534252e-02, 
                   -7.18879694e-03,  -1.25404371e-02,   1.31785418e-02,  -2.70568723e-02,  -5.13365067e-02, 
                    1.75978169e-02,   2.87807971e-02,   3.11598624e-02,   2.55871794e-03,  -9.85108835e-03, 
                    6.13270704e-03,  -2.51775643e-02,  -4.90008187e-02,  -2.96075634e-02,   4.04220252e-02, 
                   -1.62128807e-02,  -6.81003848e-02,  -2.98910147e-02,   6.67899829e-03,   2.69377150e-05, 
                    1.83604386e-03,  -3.84783424e-02,  -8.51996831e-04,   2.64627658e-02,  -1.80763916e-02, 
                    2.92677643e-02,  -3.04704343e-02,   1.20768821e-02,  -6.64668006e-03,   1.80589765e-02, 
                   -9.33200988e-03,   3.92253330e-02,  -3.02965374e-02,  -5.41545990e-03,  -2.45128087e-02, 
                    1.18416101e-02,  -3.40857537e-02,  -7.28379825e-03,  -1.63659321e-02,  -3.54647471e-02, 
                    1.30718485e-02,  -3.01136162e-02,   2.26286003e-02,  -4.41010327e-03,   5.65668093e-02, 
                   -2.49606628e-02,  -2.75164182e-02,  -7.51875644e-03,   1.35997882e-02,  -1.12642548e-02, 
                    1.26583894e-02,   1.12434676e-02,  -4.26489535e-03,  -7.19731829e-02,   4.52465932e-03, 
                    2.15320355e-03,  -8.36250244e-03,  -3.64172879e-02,  -2.49065150e-02,  -5.27563317e-03, 
                   -1.38874120e-02,  -3.24740129e-03,  -9.86898224e-03,   1.25766043e-03,  -2.52603773e-02, 
                    2.50667140e-02,  -3.23911636e-02,  -7.35029661e-02,   3.21116209e-02,  -2.43987931e-02, 
                    1.07929710e-02,  -1.22968189e-02,   9.77737312e-03,  -3.46138325e-02,   1.60685578e-02, 
                    1.68995625e-03,  -6.34562084e-03,   3.79775569e-02,   3.79936963e-02,  -1.08793540e-02, 
                    2.43665483e-02,   4.91623164e-02,  -3.96804223e-02,  -1.06426694e-02,  -9.73043618e-03, 
                    1.06939056e-02,   5.31778689e-03,   3.72339480e-02,  -6.37192536e-02,  -2.57449650e-02, 
                   -1.34767256e-02,   2.94648727e-02,   2.59973506e-02,  -3.21186894e-03,   1.14181573e-02, 
                    8.11623530e-03,  -1.22337445e-02,   1.00943903e-02,  -1.09241379e-02,   5.98970273e-02, 
                    3.96623733e-02,  -2.96662870e-03,   1.97081152e-02,   5.88870579e-02,  -3.85400715e-03, 
                   -2.61813964e-02,   9.21486552e-03,   3.66631808e-02,  -3.96566806e-02,  -4.05530508e-03, 
                   -2.01579073e-02,   2.91541634e-03,  -4.20853794e-02,  -3.30582520e-02,   7.35506976e-02, 
                   -1.93952019e-02,  -2.11494243e-02,   1.79031847e-02,  -3.25729018e-02,   1.72953914e-02, 
                    2.87391183e-02,   1.88033379e-02,  -2.27780873e-02,  -2.55521114e-02,   4.25516368e-02, 
                    2.67634121e-03,   3.33332932e-02,   1.79243432e-02,  -1.51736939e-02,  -1.55038940e-03, 
                   -3.19618069e-02,  -4.79757396e-03,  -3.25853696e-02,   3.10803617e-02,   1.78457043e-02, 
                    3.54440022e-02,   2.71504807e-02,  -1.22241060e-02,  -2.47495893e-02,  -1.95508242e-02, 
                    3.45067705e-02,   1.28665552e-02,   3.25543902e-03,   2.85323444e-02,  -3.19359750e-02, 
                   -7.41051904e-03,   3.67591878e-02,  -4.53246065e-02,  -2.88862641e-02,   3.49344211e-02, 
                   -4.41077926e-03,  -6.89107682e-02,  -2.90924348e-02,   4.50064480e-02,   1.33390390e-02, 
                    4.25789265e-03,  -1.52552519e-02,  -1.33791472e-02,   2.99387493e-03,  -3.68099196e-02, 
                    6.11474026e-02,   1.58851897e-02,  -5.35960139e-03,  -2.57999953e-02,  -2.74566934e-02, 
                    6.22480731e-02,   2.08020474e-03,   5.11702163e-02,  -4.44999039e-02,  -2.17884426e-02, 
                    1.55581021e-02,   2.98427388e-03,   1.10509766e-01,  -7.17852805e-03,   2.40330594e-02, 
                   -1.02646459e-02,   3.68883992e-03,  -1.96289237e-02,   3.75814782e-02,  -4.24981531e-03, 
                    1.24630449e-02,   2.64932075e-02,   1.50073850e-02,   1.00243444e-02,  -2.84617074e-04, 
                    3.98353748e-02,   1.59286425e-02,   1.28442903e-02,   5.48079803e-03,  -1.84313993e-02, 
                   -1.59040101e-02,   8.93884146e-02,   2.69985893e-02,  -2.74433628e-02,  -3.14220311e-02, 
                   -3.10740929e-02,  -2.52884825e-02,  -3.84532512e-02,   1.27011951e-02,  -4.46600276e-02, 
                   -2.06186490e-02,  -1.44783678e-02,  -1.72164982e-02,  -8.89099010e-04,   6.58771059e-03, 
                    7.65153411e-03,   3.46304423e-02,   3.62493688e-02,   2.39676739e-02,  -4.30269088e-02, 
                   -4.36609640e-02,   8.36499965e-03,   9.70146987e-03,  -1.12015264e-02,   1.20822414e-02, 
                   -8.04569079e-03,  -6.27020479e-02,   1.87277995e-03,   1.37862519e-02,   5.25582621e-02, 
                    5.82563878e-02,  -6.90440468e-03,   2.14490709e-02,   3.63013829e-03,   1.76441802e-02, 
                   -2.98883448e-02,  -4.21918758e-02,   1.53391298e-02,   1.12780571e-02,  -5.47615350e-02, 
                    1.42101962e-02,  -2.56186437e-02,  -6.18164526e-03,   1.14815488e-02,  -1.69708421e-02, 
                   -1.01612714e-02,   1.58700886e-02,  -2.97302649e-02,   3.91656210e-02,  -4.95571964e-02, 
                   -2.56508324e-02,   1.85238443e-02,  -4.44417960e-02,   1.28785790e-02,  -5.15665674e-03, 
                   -1.92876191e-02,   2.99468255e-03,  -8.95428238e-03,   1.22034823e-02,   1.60895986e-02, 
                    1.59567937e-02,   2.29534997e-03,  -8.50686629e-03,  -2.04534147e-02,   5.07413082e-03, 
                   -1.46372336e-02,   1.12012091e-02,  -2.58000145e-02,  -2.32554597e-03,  -5.45775294e-02, 
                    3.96170634e-02,   4.25549317e-02,   1.48140588e-02,  -7.51069466e-03,   2.42622859e-02, 
                    2.35798627e-03,  -5.26824331e-02,  -2.70902738e-02,   2.25285891e-03,   3.62200571e-03, 
                   -1.34811200e-02,  -1.80157208e-02,   2.09896376e-02,  -1.75167509e-02,   2.63445893e-02, 
                    2.11034407e-02,  -1.59580388e-03,   6.47346115e-02,   1.60240821e-02,   4.19078651e-02, 
                    3.55725030e-02,  -2.14359901e-02,  -9.33078145e-03,  -4.92771678e-02,   1.76953392e-02, 
                    7.94882037e-03,  -3.76515390e-02,  -1.40856908e-02,   3.42275437e-03,   4.80674932e-02, 
                   -2.73212363e-02,  -1.74262976e-02,  -2.04475550e-02,   3.43740013e-02,   1.41727035e-02, 
                   -3.90509343e-02,   5.76395183e-03,   1.69865935e-02,   1.53539332e-02,   6.62567142e-03, 
                    3.14672712e-03,  -3.52138508e-02,  -8.29863610e-02,   1.78568483e-02,   3.49343471e-03, 
                    3.65115045e-02,  -4.74656360e-02,   3.06566124e-02,   5.79875067e-02,  -6.78769424e-03, 
                   -2.66704990e-02,   1.90290417e-02,  -1.83836336e-02,  -1.83537838e-02,   1.48797448e-02, 
                    1.00673115e-02,   5.30807072e-03,   2.44629840e-02,  -1.42564172e-03,  -2.01565159e-02, 
                   -2.90541454e-03,  -3.21056105e-02,  -1.40904756e-02,  -1.09538628e-02,  -1.33328421e-02, 
                    3.62025731e-03,   4.32453226e-03,   1.25151609e-02,   3.61652527e-03,   7.10549132e-03, 
                   -2.64669679e-02,   2.81975985e-02,  -1.47837231e-02,  -2.49690056e-02,   5.15280949e-02, 
                   -2.59714901e-02,   1.97111911e-02,  -2.51026648e-02,   6.47364542e-02,  -2.30096516e-02, 
                    1.44557737e-02,   1.75460102e-02,   4.19021320e-02,   5.45996977e-02,   1.52851889e-02, 
                    1.42428109e-02,   4.67644866e-02,  -3.34608661e-02,   2.63357310e-03,  -1.51705796e-02, 
                   -4.04443330e-02,   5.28803775e-03,  -1.26745414e-02,  -1.45435225e-02,  -2.69092293e-03, 
                    8.90328986e-03,   1.69761670e-02,  -4.20536661e-02,  -3.12025239e-03,   6.78921583e-03, 
                   -1.63940204e-02,  -6.78424253e-03,   6.65053117e-03,   3.50929593e-03,   2.94407164e-02, 
                   -7.68404879e-03,  -1.50487487e-02,  -8.62584269e-03,  -4.56505943e-03,  -3.04791551e-02, 
                    1.99324569e-02,   4.27894991e-02,   8.16945338e-03,  -1.92195955e-02,  -2.67391732e-02, 
                    1.12748683e-02,  -3.54730816e-03,   1.12043831e-02,   3.98531452e-03,  -7.43220835e-03, 
                   -1.27239959e-02,   2.13337045e-02,  -1.45070923e-02,  -1.66347966e-02,   2.52319438e-02, 
                   -2.73335626e-02,   5.17952948e-02,   4.32979187e-03,  -7.71196338e-03,  -5.02228675e-02, 
                    2.76028123e-02,  -2.45839815e-02,  -2.85771409e-02,  -1.15712546e-02,   4.12385222e-02, 
                   -2.83122188e-02,  -2.53839405e-02,   2.11808397e-02,  -1.38015520e-02,  -1.47628235e-02, 
                   -1.96734359e-02,   9.91446134e-03,   1.91621858e-03,  -2.61772400e-02,   2.37872032e-02, 
                    4.63487217e-04,   2.37749183e-02,   5.20773434e-02,   6.21108027e-04,  -3.85249072e-02, 
                    2.49634510e-02,   4.03239791e-04,  -2.08650811e-03,  -1.36647868e-03,   3.47500846e-02, 
                   -1.21917196e-02,   3.91398867e-02,   2.30784596e-02,  -6.96181134e-03,   8.50506199e-03, 
                    1.53061014e-02,  -2.65156408e-02,  -3.56325064e-02,   2.63716075e-02,  -2.02616836e-02, 
                   -4.48493835e-02,  -1.05654690e-02,  -2.69752718e-02,   2.23504272e-02,  -4.51632909e-02, 
                    1.52985013e-02,   2.60316202e-02,  -4.13512803e-02,  -1.12434224e-02,   3.98800982e-02, 
                   -2.52562229e-02,   5.19077059e-02,   3.52606841e-02,  -4.19507107e-02,  -7.80355857e-04, 
                    3.86953327e-02,  -7.09288121e-04,  -1.87922993e-02,  -8.06980733e-02,   5.92819233e-03, 
                    3.62169870e-02,  -1.61593806e-02,   1.39371206e-02,   1.11437390e-02,   1.65671510e-02, 
                   -3.60650972e-02,   5.71164026e-02,  -1.41233291e-02,  -4.48182671e-03,  -4.20993844e-02, 
                    3.22106976e-04,   1.18020488e-02,   5.77154799e-02,  -1.03760356e-02,  -4.75309500e-02, 
                    4.15533904e-03,  -5.09279367e-03,   4.44734421e-03,  -1.11596600e-02,  -1.12615507e-02, 
                   -2.32102804e-02,  -6.87787743e-03,   3.43121560e-02,  -1.22011616e-02,   2.42313301e-02, 
                   -9.41200788e-03,   4.48957552e-03,  -2.76916638e-02,   2.12178635e-02,  -8.00199405e-03, 
                    9.13890330e-03,  -2.49133970e-02,  -3.60407965e-02,   5.51799065e-03,   2.68610437e-02, 
                   -2.25371158e-02,   4.46016566e-04,   3.06007388e-02,  -1.77614254e-02,  -6.38414788e-04, 
                    1.92987431e-02,   1.46082656e-02,   5.14072544e-03,   5.75821074e-03,  -7.48411970e-03, 
                   -6.39527490e-06,   3.48747568e-02,  -2.30645180e-02,  -7.32662296e-03,   1.46071696e-02, 
                    4.02620274e-03,  -3.28298877e-03,   4.21142357e-02,  -4.17633718e-02,  -4.70224562e-02, 
                    2.58067206e-02,  -2.13284197e-02,   5.80975420e-02,  -2.39385487e-02,   1.40531604e-02, 
                   -2.23033608e-03,  -3.94847699e-02,   4.44272231e-02,   1.03834541e-05,   2.53484074e-02, 
                   -1.27987606e-02,  -2.43259492e-02,   3.17703082e-02,   1.62842576e-03,  -1.22042053e-02, 
                    2.60825489e-03,  -3.93307891e-02,   4.10190935e-02,  -4.97345027e-03,  -7.15361820e-03, 
                   -3.55496334e-02,   1.27254215e-02,  -2.36385781e-02,  -1.41439693e-02,   1.44454461e-02, 
                    4.61915707e-02,   1.63418237e-02,  -4.80398285e-02,  -5.01842806e-03,  -2.33105696e-02, 
                    3.61932497e-02,  -1.14364442e-02,   4.40719218e-03,   1.46613773e-03,   2.68939367e-02, 
                    2.09113513e-02,  -1.36837852e-02,   5.40366324e-02,  -1.83665504e-02,  -4.87628850e-03, 
                   -1.01409419e-02,  -1.07037962e-02,  -3.65260603e-02,   1.48541794e-02,  -2.61958403e-03, 
                    1.12882263e-02,  -2.88641232e-03,   8.68570951e-04,   7.36098258e-02,  -2.21039885e-02, 
                   -1.42655235e-02,  -5.67867216e-02,  -1.90447735e-02,   7.50347844e-02,   4.08399577e-02, 
                    1.78566991e-02,  -1.41481559e-02,   1.44324769e-02,   4.94309080e-02,  -2.74144086e-02, 
                    1.91444893e-02,   2.68935301e-02,   4.22490514e-02,  -2.12792217e-02,   1.33231087e-02, 
                    4.82199962e-02,  -3.22930787e-02,   8.16885873e-05,  -3.09670031e-02,  -8.37172063e-03, 
                    1.41364006e-02,  -2.77832365e-05,  -1.89802587e-02,   8.38372110e-03,   4.12371708e-02, 
                   -8.54326805e-03,  -2.79819108e-02,   5.34297866e-03,  -4.73839300e-02,  -1.28975651e-02, 
                    1.52899379e-02,  -3.34063293e-02,  -1.16105949e-02,   3.31210484e-02,  -8.82676674e-03, 
                    4.44295783e-02,   1.05623857e-02,  -4.41230851e-02,  -2.53484526e-02,   1.83551969e-02, 
                    2.45244199e-02,   7.54686048e-03,   2.66651259e-02,   4.14370222e-03,  -4.98719898e-02, 
                    1.66690478e-02,   2.54150879e-03,   1.83207551e-02,  -2.28459397e-03,   2.25631785e-02, 
                    3.93485754e-03,  -1.40968307e-02,  -3.61007882e-03,   1.16658641e-02,   1.70111452e-02, 
                    6.00475182e-02,   2.64824201e-02,  -2.62086156e-02,  -3.50779942e-03,   5.64703801e-03, 
                    5.07191285e-03,  -9.01432760e-03,  -4.49106240e-02,  -3.60634611e-02,   4.22786031e-02, 
                    1.83887501e-02,  -8.99087605e-03,   2.68737013e-02,   7.37184087e-03,   4.52426709e-03, 
                   -1.60855106e-02,   9.89474050e-03,   3.13724522e-02,   3.32938930e-02,   2.98519444e-02, 
                    1.43700395e-02,  -2.64147827e-02,  -1.53768885e-02,   1.66018099e-02,   4.17045892e-02, 
                    2.87332074e-03,   7.46869186e-03,   8.98442719e-05,  -7.30164395e-02,  -4.37694145e-02, 
                    3.10352527e-02,   1.56087495e-02,  -3.62692189e-02,   1.08396334e-02,  -4.83198350e-02, 
                   -2.86536378e-02,   1.45287488e-03,   1.41614323e-02,  -1.52837568e-02,  -1.42565280e-02 ]
               </s>
            </thermostat>
            <timestep>  2.06706865e+01</timestep>
            <nmts shape='(1)'> [ 1 ] </nmts>
         </dynamics>
      </motion>
      <beads natoms='48' nbeads='1'>
         <q shape='(1, 144)'>
          [   7.35351007e+00,   7.06789687e+00,   7.24783659e+00,   3.76047935e+00,   7.17587582e+00, 
              1.08793232e+01,   1.43984090e+01,   1.42822853e+01,   7.36660587e+00,   5.71264200e-02, 
              3.45082883e+00,   1.81078657e+01,   3.59886997e+00,   7.71953112e-02,   1.80450323e+01, 
              7.03327709e+00,   1.43718961e+01,   1.42964394e+01,   3.67959907e+00,   3.59242601e+00, 
              1.44078576e+01,   3.78238128e+00,   1.42935292e+01,   3.57320749e+00,   1.06664645e+01, 
              1.09563296e+01,   7.41522852e+00,   1.07325293e+01,   3.71136537e+00,   2.75087428e-01, 
              1.41511950e+01,   7.37354117e+00,   7.46783850e+00,   1.08253338e+01,   3.70210571e+00, 
              1.43204578e+01,   3.60792176e+00,   7.41515294e+00,   1.82736136e+01,   7.58536057e-02, 
              1.42130268e+01,   1.43362370e+01,   3.56551631e+00,   8.03322565e-02,   1.08274314e+01, 
              1.43868438e+01,   3.29632483e+00,   3.39122687e+00,   6.96052263e+00,   3.61975145e+00, 
              3.40893360e+00,   7.09499554e+00,   1.08852192e+01,   3.30824900e+00,   1.06615701e+01, 
              1.43549075e+01,   3.35500082e+00,   1.07662798e+01,   1.42402389e+01,   1.07431685e+01, 
              7.08246666e+00,   2.21475899e-02,   7.07031572e+00,   3.86649298e+00,   1.07487999e+01, 
              7.13772225e+00,   1.08675691e+01,   9.42973324e-02,   1.82390694e+01,   7.23373923e+00, 
              7.24530435e+00,   2.15770249e+01,   1.43677954e+01,   3.88590047e+00,   1.10486994e+01, 
              3.60748712e-02,   1.08136553e+01,   3.54197032e+00,   1.08060019e+01,   7.16344142e+00, 
              1.76814868e+01,   8.10692497e-03,   1.07205862e+01,   1.06954907e+01,   1.42358547e+01, 
              6.91849512e+00,   6.84647766e-02,   7.04625950e+00,   3.62200022e+00,   1.80006049e+01, 
              1.08027326e+01,   7.40065874e+00,   3.51691255e+00,   2.00575528e-01,   1.06426161e+01, 
              1.79423446e+01,   7.28207842e+00,   1.06040279e+01,   1.07559241e+01,   1.08405838e+01, 
              3.63861091e+00,   7.44306419e+00,   1.43711969e+01,   7.17075466e+00,   1.42373287e+01, 
              1.09571799e+01,   7.16347921e+00,   1.09283427e+01,   1.06991756e+01,   1.09234105e+01, 
              1.42935292e+01,   1.59171629e-01,   1.41732481e+01,   2.13869751e+01,   3.90132064e+00, 
              1.07791111e+01,   2.13872586e+01,   7.29689388e+00,   1.08540009e+01,   1.80882882e+01, 
              3.58813633e+00,   7.06154739e+00,   3.70941895e+00,   1.08445712e+01,   1.06291235e+01, 
              2.15397595e+01,   7.37592222e+00,   3.59745268e+00,   1.08087042e+01,   7.14478982e+00, 
              1.43314749e+01,   1.07657696e-01,   7.30804326e+00,   7.40884125e+00,   1.46284075e+01, 
              3.58637888e+00,   1.06912199e+01,   1.43430778e+01,   3.99988875e+00,   3.76607294e+00, 
              2.15584678e+01,   3.51706373e+00,   3.63715582e+00,   7.23920054e+00 ]
         </q>
         <p shape='(1, 144)'>
          [  -2.33680776e+00,   3.29788954e+00,  -2.76392528e+00,  -5.16422530e+00,   1.52740675e+01, 
              1.26436569e+01,   6.04261548e-02,   1.70950547e+00,   7.61437392e+00,   9.35185543e+00, 
              7.55280610e+00,  -9.02075286e+00,   1.52707458e+00,   1.28394396e+00,   1.23175260e+01, 
              6.45208361e+00,  -1.66826939e+01,  -1.57506744e+00,   1.27557384e+01,  -4.09249566e+00, 
             -2.92745973e+00,   3.15409102e+00,   2.56096929e+01,  -6.80573426e+00,  -5.33625167e+00, 
              4.39868451e-01,   3.85754221e+00,   3.53095146e+00,  -5.52329970e-01,   1.22441706e+01, 