48
Lattice="7.623021755 0.0 0.0 0.0 7.623021755 0.0 0.0 0.0 11.434532633" Properties=species:S:1:pos:R:3:forces:R:3 class=3 scale=0.9575845574288943 name=643 fps_idx=7875 energy=-328.12238944 stress="-0.06710893081582532 -0.006867482559136342 0.003545651538195258 -0.006867482559136342 -0.053081157779930076 -0.004946982684120315 0.003545651538195258 -0.004946982684120315 -0.06373528902763029" free_energy=-328.13853472 pbc="T T T"
Sc       3.89131000       3.74017000       3.83539000      -1.18202600      -0.50527100      -1.36595400
Sc       1.98996000       3.79731000       5.75709000       0.12930700       0.78279900       0.04404300
Sc       7.61931000       7.55786000       3.89824000       0.71257900       1.91940400       0.42741300
Sc       0.03023000       1.82610000       9.58227000      -0.70260800       0.76734200      -0.06007000
Sc       1.90444000       0.04085000       9.54902000       0.08965200      -2.96996300       0.88717100
Sc       3.72185000       7.60528000       7.56535000       1.69112800      -1.83255400      -1.27416700
Sc       1.94716000       1.90103000       7.62431000      -0.38373900       1.40993900      -0.94226500
Sc       2.00155000       7.56381000       1.89086000      -0.12037000       0.40160900       0.15469600
Sc       5.64445000       5.79784000       3.92397000      -1.41270100       1.73000600      -1.66099400
Sc       5.67941000       1.96397000       0.14557000      -0.79016100      -1.86003900      -0.06902000
Sc       7.48849000       3.90191000       3.95181000       2.02985300      -1.91414000      -3.08775700
Sc       5.72852000       1.95907000       7.57806000      -0.51056200      -1.93804400       0.46620100
Fe       1.90923000       3.92393000       9.66998000       0.57133400      -1.00118600      -1.45964200
Fe       0.04014000       7.52121000       7.58641000      -0.08532100      -0.25490100      -0.67291900
Fe       1.88679000       0.04251000       5.72963000       0.20949400      -0.48563900      -0.25891900
Fe       7.61319000       1.74434000       1.79456000      -0.14111600       0.77596500      -0.05649100
Fe       3.68335000       1.91549000       1.80393000       1.05318300      -0.72096200       0.98953100
Fe       3.75451000       5.76021000       1.75065000       0.72395100      -0.29389300       1.18958100
Fe       5.64186000       7.59629000       1.77539000      -0.04546700       0.13959700       0.72294800
Fe       5.69727000       7.53561000       5.68504000       0.60702300       0.81993400       0.25954300
Fe       3.74788000       0.01172000       3.74145000       0.05617500       0.00105600       0.64213200
Fe       2.04606000       5.68802000       3.77712000       0.03119600       1.08538100      -0.07998500
Fe       5.75087000       0.04990000       9.65170000      -0.37905900      -0.49930900      -0.83376000
Zn       3.82793000       3.83405000      11.41807000      -0.59333800       0.75484900       0.23671500
Zn       7.60311000       2.05633000       5.84672000       0.40430800      -2.88807400      -1.21563100
Zn       0.01909000       5.72234000       1.87433000       0.21237800      -0.14154300      -0.58696300
Zn       5.71829000       3.79073000       9.35664000       0.26910600       1.34322400       1.47318200
Zn       0.00429000       5.67309000       5.65981000       0.81414400       1.68222600       2.27440600
Zn       7.53329000       3.66111000       0.03623000       2.20298600       1.68248900       0.15625200
Zn       3.72872000       1.91668000       9.52551000       1.38369500       0.54729600       0.06047500
Mo       5.71656000       3.91626000       1.86107000      -0.64479500      -0.71857000      -0.10593200
Pd       0.10614000       5.63183000       9.49468000      -1.45862000       0.39932200      -0.25634100
Pd       3.85351000       5.61141000       5.69179000      -0.97325400       1.55566900      -0.34690100
Pd       5.73659000       1.92547000       3.93870000       0.49642700      -1.69933200      -2.21170700
Pd       7.60491000       3.79460000       7.53407000       1.39716400       0.40229000       1.97066400
Pd       5.79829000       3.79075000       5.78303000      -1.27295300       1.13674600      -0.28129300
Pd       5.66176000       5.78042000       7.56381000       1.59874300       1.54028700       0.64889800
Pd       0.08423000       7.50016000      11.31750000      -1.13434500       0.55770100       1.51742200
Pd       2.06449000       5.70406000      11.31765000      -1.73465500      -1.29783100       1.81442500
Pd       3.86135000       5.74369000       9.57191000       0.47415900       0.11507300      -0.99691100
Pd       1.89876000       3.73681000       1.96294000      -0.34352500       1.34211200      -0.15582200
Ir       5.73870000       5.62469000      11.39835000       0.12565800       0.64205900       0.81951500
Ir       3.90317000       1.90369000       5.71972000      -1.60574500      -2.00849000       0.00562800
Ir       3.78086000       7.58389000       0.05697000       2.62215800       0.59552900       0.07637100
Ir       3.86725000       3.92059000       7.74102000      -1.91757800      -1.62538700      -0.08180300
Ir       1.89783000       5.65755000       7.59003000      -0.44307500       1.26522200       0.59983700
Ir       2.11665000       1.99292000      11.40825000      -1.95991800       0.45133800       0.14594700
Ir       1.86115000       1.92470000       3.83082000      -0.07087000      -1.19133200       0.47825100

