48
#CELL(abcABC):   7.623021755   7.623021755   11.434532633   90.00000    90.00000    90.00000  cell{angstrom}  Traj: positions{angstrom} Step:           0  Bead:      10
Sc 3.89131000 3.74017000 3.83539000
Sc 1.98996000 3.79731000 5.75709000
Sc 7.61931000 7.55786000 3.89824000
Sc 0.03023000 1.82610000 9.58227000
Sc 1.90444000 0.04085000 9.54902000
Sc 3.72185000 7.60528000 7.56535000
Sc 1.94716000 1.90103000 7.62431000
Sc 2.00155000 7.56381000 1.89086000
Sc 5.64445000 5.79784000 3.92397000
Sc 5.67941000 1.96397000 0.14557000
Sc 7.48849000 3.90191000 3.95181000
Sc 5.72852000 1.95907000 7.57806000
Fe 1.90923000 3.92393000 9.66998000
Fe 0.04014000 7.52121000 7.58641000
Fe 1.88679000 0.04251000 5.72963000
Fe 7.61319000 1.74434000 1.79456000
Fe 3.68335000 1.91549000 1.80393000
Fe 3.75451000 5.76021000 1.75065000
Fe 5.64186000 7.59629000 1.77539000
Fe 5.69727000 7.53561000 5.68504000
Fe 3.74788000 0.01172000 3.74145000
Fe 2.04606000 5.68802000 3.77712000
Fe 5.75087000 0.04990000 9.65170000
Zn 3.82793000 3.83405000 11.41807000
Zn 7.60311000 2.05633000 5.84672000
Zn 0.01909000 5.72234000 1.87433000
Zn 5.71829000 3.79073000 9.35664000
Zn 0.00429000 5.67309000 5.65981000
Zn 7.53329000 3.66111000 0.03623000
Zn 3.72872000 1.91668000 9.52551000
Mo 5.71656000 3.91626000 1.86107000
Pd 0.10614000 5.63183000 9.49468000
Pd 3.85351000 5.61141000 5.69179000
Pd 5.73659000 1.92547000 3.93870000
Pd 7.60491000 3.79460000 7.53407000
Pd 5.79829000 3.79075000 5.78303000
Pd 5.66176000 5.78042000 7.56381000
Pd 0.08423000 7.50016000 11.31750000
Pd 2.06449000 5.70406000 11.31765000
Pd 3.86135000 5.74369000 9.57191000
Pd 1.89876000 3.73681000 1.96294000
Ir 5.73870000 5.62469000 11.39835000
Ir 3.90317000 1.90369000 5.71972000
Ir 3.78086000 7.58389000 0.05697000
Ir 3.86725000 3.92059000 7.74102000
Ir 1.89783000 5.65755000 7.59003000
Ir 2.11665000 1.99292000 11.40825000
Ir 1.86115000 1.92470000 3.83082000
   
