3
# CELL(abcABC): 200. 200. 200. 90. 90. 90. cell Traj: positions Step: 0 Bead: 0
O   0.000000   0.000000   0.000000
H   1.999206   0.000000   0.000000
H  -1.030638   1.764736   0.000000
