3
# CELL(abcABC): 20. 20. 20. 90. 90. 90. cell Traj: positions Step: 0 Bead: 0
O   0.000000   0.000000   0.000000
H   1.500000   0.000000   0.000000
H  -1.197227   1.709817   0.000000
