3
# CELL(abcABC): 200. 200. 200. 90. 90. 90. cell Traj: positions Step: 0 Bead: 0
O   0.000000   0.000000   0.000000
H   1.923016   0.000000   0.000000
H  -0.254373   1.950947   0.000000
