12
# CELL(abcABC):  100.00000   100.00000   100.00000    90.00000    90.00000    90.00000  Step:        2200  Bead:       0 positions{angstrom}  cell{atomic_unit}
       O  5.60511e-01 -1.75267e+00  3.48644e-01
       H  8.73059e-01 -2.58664e+00  2.85949e-01
       H  8.45874e-01 -1.79984e+00  1.18890e+00
       O -2.63313e+00 -1.20864e+00  2.41516e+00
       H -1.71242e+00 -1.36959e+00  2.33961e+00
       H -2.67775e+00 -4.81074e-01  1.83431e+00
       O  2.12946e+00  2.27506e+00 -9.72350e-01
       H  1.59875e+00  1.79303e+00 -4.01511e-01
       H  1.98483e+00  1.64764e+00 -1.71956e+00
       O -6.03581e-02  7.74586e-01 -1.77651e+00
       H -3.69178e-01  1.81018e-01 -2.40942e+00
       H -9.75038e-01  1.17855e+00 -1.64147e+00
