12
# CELL(abcABC):  100.00000   100.00000   100.00000    90.00000    90.00000    90.00000  Step:        2200  Bead:       0 positions{angstrom}  cell{atomic_unit}
       O  1.30565e+00 -8.63923e-01 -1.03738e+00
       H  9.73300e-01 -1.31217e+00 -1.88015e+00
       H  2.13067e+00 -4.59240e-01 -1.13219e+00
       O  6.90693e-01  3.56308e-01  1.43681e+00
       H  8.41226e-01  1.26902e+00  1.13452e+00
       H  9.95685e-01 -2.00152e-01  6.24518e-01
       O -4.67551e-01  2.12133e+00 -7.73053e-01
       H -5.86187e-02  1.28066e+00 -3.75882e-01
       H -1.33840e+00  2.19498e+00 -2.80333e-01
       O -1.58383e+00 -1.64619e+00  4.24867e-01
       H -1.49822e+00 -8.77933e-01  1.03074e+00
       H -7.59620e-01 -1.63416e+00  1.08928e-01
