12
# CELL(abcABC):  100.00000   100.00000   100.00000    90.00000    90.00000    90.00000  Step:        2200  Bead:       0 positions{angstrom}  cell{atomic_unit}
       O -1.51490e+00 -3.09021e-01 -3.62020e-01
       H -1.31713e+00  4.48695e-01  9.92916e-02
       H -7.28663e-01 -2.80965e-01 -9.84552e-01
       O  5.41406e-01  1.10087e+00 -1.10851e+00
       H -3.27821e-01  1.02555e+00 -1.29636e+00
       H  1.00791e+00  3.16260e-01 -6.57044e-01
       O  1.00628e-01  6.93831e-01  1.53957e+00
       H  4.36346e-01 -1.25567e-01  1.49587e+00
       H  2.38933e-01  8.65350e-01  5.76778e-01
       O  8.44737e-01 -1.49138e+00 -7.54802e-02
       H  9.82025e-01 -1.70668e+00  8.60893e-01
       H -1.04129e-01 -1.14288e+00 -1.31908e-02
