12
# CELL(abcABC):  100.00000   100.00000   100.00000    90.00000    90.00000    90.00000  Step:        2200  Bead:       0 positions{angstrom}  cell{atomic_unit}
       O -4.94171e-02  1.40172e+00 -2.39342e+00
       H  5.54459e-01  7.17789e-01 -2.17307e+00
       H -3.53014e-01  1.40441e+00 -1.58577e+00
       O  1.62044e+00 -6.29492e-01  2.94528e-01
       H  9.82234e-01 -1.15963e+00  6.28001e-01
       H  1.46475e+00  1.89020e-01  7.63573e-01
       O -8.94683e-01 -1.44365e+00  1.75700e+00
       H -2.79665e-01 -1.01437e+00  2.45394e+00
       H -3.96804e-01 -2.09362e+00  1.59629e+00
       O -6.65815e-01  7.66844e-01  1.53795e-01
       H -1.13653e+00 -9.19247e-02  3.97773e-01
       H -7.23158e-01  1.56265e+00  7.30027e-01
