12
# CELL(abcABC):  100.00000   100.00000   100.00000    90.00000    90.00000    90.00000  Step:        2200  Bead:       0 positions{angstrom}  cell{atomic_unit}
       O -1.99016e+00 -1.80169e+00 -1.28848e+00
       H -1.39029e+00 -2.18993e+00 -6.96688e-01
       H -1.51115e+00 -1.14484e+00 -1.53007e+00
       O  1.90521e+00  1.90868e+00  2.21513e-01
       H  1.00643e+00  1.70887e+00  4.00059e-01
       H  2.23535e+00  1.28095e+00  8.05090e-01
       O -1.54318e-01  2.29771e-01  1.92400e+00
       H  4.24195e-01  1.15019e-01  2.65761e+00
       H -7.41072e-01  8.52408e-01  2.12255e+00
       O  1.63894e-01 -3.40432e-01 -9.79020e-01
       H -5.06743e-02  6.47637e-02 -5.15050e-02
       H  1.01534e+00  1.88046e-01 -1.25926e+00
