12
# CELL(abcABC):  100.00000   100.00000   100.00000    90.00000    90.00000    90.00000  Step:        2200  Bead:       0 positions{angstrom}  cell{atomic_unit}
       O  8.72268e-01 -1.59617e+00 -1.03514e-01
       H  1.92293e-01 -1.96778e+00  3.37283e-01
       H  1.46491e+00 -1.09278e+00  4.55853e-01
       O  1.23427e+00  1.49440e+00  9.69004e-01
       H  6.56842e-01  2.26849e+00  8.41614e-01
       H  7.47105e-01  6.85565e-01  1.07871e+00
       O -5.02307e-01  3.19115e-01 -1.82133e+00
       H -3.16824e-01 -5.81539e-01 -1.60072e+00
       H  3.71905e-01  6.27373e-01 -1.74522e+00
       O -1.64903e+00 -9.97558e-02  9.13022e-01
       H -1.20400e+00  2.28601e-01  5.38357e-02
       H -1.36898e+00 -9.75894e-01  1.25343e+00
