12
# CELL(abcABC):  100.00000   100.00000   100.00000    90.00000    90.00000    90.00000  Step:        2200  Bead:       0 positions{angstrom}  cell{atomic_unit}
       O  1.56970e+00  1.06196e+00 -1.02161e+00
       H  1.08020e+00  5.47045e-01 -1.58681e+00
       H  2.37072e+00  3.97359e-01 -7.83188e-01
       O  2.28589e-01  7.08074e-01  1.11315e+00
       H -3.76554e-01  1.22155e+00  5.21341e-01
       H  1.14908e+00  1.02952e+00  7.71157e-01
       O -2.57742e+00  8.02843e-02 -1.92442e-01
       H -1.66022e+00 -9.22437e-02  1.20720e-01
       H -3.25567e+00  2.63914e-01  5.12648e-01
       O  8.30662e-01 -1.82063e+00  1.27600e-01
       H  1.31402e-01 -2.40808e+00 -2.10405e-01
       H  5.20727e-01 -1.26918e+00  6.81459e-01
