12
# CELL(abcABC):  100.00000   100.00000   100.00000    90.00000    90.00000    90.00000  Step:        2200  Bead:       0 positions{angstrom}  cell{atomic_unit}
       O  9.61414e-01  9.59781e-01 -8.50120e-01
       H  6.29855e-01  1.09102e+00  1.20523e-02
       H  1.20447e+00  6.17837e-02 -6.38437e-01
       O  6.54827e-01 -1.45518e+00  2.44742e-01
       H -3.36033e-03 -9.20540e-01  6.97322e-01
       H  1.28803e+00 -9.77020e-01  6.96214e-01
       O -2.21304e-01  7.16813e-01  1.42672e+00
       H -1.13352e+00  3.70686e-01  1.16601e+00
       H -2.78385e-01  7.44203e-01  5.09222e-01
       O -1.43935e+00 -2.17919e-01 -8.25405e-01
       H -6.84001e-01  4.15325e-01 -1.00769e+00
       H -9.12693e-01 -1.04591e+00 -1.01511e+00
