3
# CELL(abcABC): 200. 200. 200. 90. 90. 90. cell Traj: positions Step: 0 Bead: 0
O   0.000000   0.000000   0.000000
H   1.961111   0.000000   0.000000
H  -0.965244   1.415754   0.000000
