3  
# CELL(abcABC):   12.41380    12.41380    12.41380    90.00000    90.00000    90.00000  cell{angstrom}  Traj: positions  Step:        0  Bead:       0
O         -1.282221   6.038104   1.936229
H         -0.519359   7.142048   0.692369
H         -2.888319   6.702892   2.282056
