LAMMPS Description
 
         12  atoms
          8  bonds
          3   angles
 
           2  atom types
           1  bond types
           1  angle types

         0 25.62 xlo xhi
         0 29.58 ylo yhi
         0 27.88 zlo zhi
         0.1 0.1 0.1 xy xz yz 
Masses
 
  1 15.9994
  2  1.0080
 
Bond Coeffs
 
  1    1.78    0.2708585 -0.327738785 0.231328959
 
Angle Coeffs
 
  1    0.0700  107.400000

Atoms
 
 1 1 1 -1.1128       3.84600000       5.67200001       1.32300000
 2 1 2 0.5564        2.97900000       7.05400000       0.85700000
 3 1 2 0.5564        5.52500001       5.69700001       0.45100000
 4 2 1 -1.1128      34.55700001      34.34100000       3.07800000
 5 2 2 0.5564       33.72200001      34.68900000       4.84000001
 6 2 2 0.5564       36.02900000      33.22000001       3.71100001
 7 3 1 -1.1128       5.59100000       1.96299999      13.47700000
 8 3 2 0.5564        7.26500000       1.86400000      13.85100001
 9 3 2 0.5564        5.00899999       3.55500000      13.91599999
 10 4 1 -1.1128       1.06000000       2.06100000      21.71800001
 11 4 2 0.5564        0.75700000       0.26100000      21.82000000
 12 4 2 0.5564        0.21300001       3.01299999      23.04700000

Bonds

 1 1 1 2
 2 1 1 3
 3 1 4 5
 4 1 4 6
 5 1 7 8
 6 1 7 9
 7 1 10 11
 8 1 10 12

Angles

 1 1 2 1 3
 2 1 5 4 6
 3 1 8 7 9

