12
# CELL(abcABC):    8.48487     8.48487    13.84980    90.00000    90.00000   120.31000  Step:          66  Bead:       0 positions{atomic_unit}  cell{atomic_unit}
       O -1.56509e-01  4.95824e+00  7.08004e-01
       H  1.34431e+00  4.09714e+00  1.11349e-01
       H -3.99699e-02  4.89136e+00  2.53320e+00
       O  4.36841e+00  2.36204e+00  7.70142e+00
       H  2.87604e+00  3.21830e+00  7.07525e+00
       H  4.24213e+00  2.43450e+00  9.52553e+00
       O  4.07924e+00  2.52795e+00  1.28559e+01
       H  4.13396e+00  8.15973e-01  1.35011e+01
       H  5.58486e+00  3.34477e+00  1.35011e+01
       O  1.79897e-01  4.76518e+00  5.86955e+00
       H -1.35970e+00  4.11540e+00  6.60709e+00
       H -3.61572e-02  6.42228e+00  6.60710e+00
