3
# CELL(abcABC): 200. 200. 200. 90. 90. 90. cell Traj: positions Step: 0 Bead: 0
O   0.000000   0.000000   0.000000
H   1.707143   0.000000   0.000000
H  -0.282825   1.876424   0.000000
